# vtk DataFile Version 3.0
Unstructured Grid ./examples/hex20_pyramid13_tetra10_wedge15.vtk
ASCII
DATASET UNSTRUCTURED_GRID
POINTS 99 float
0.5 -0.5 1.0
0.5 0.5 1.0
-0.5 0.5 1.0
-0.5 -0.5 1.0
0.5 0.5 -1.0
0.5 -0.5 -1.0
-0.5 -0.5 -1.0
-0.5 0.5 -1.0
-0.5 -0.5 0.0
0.5 -0.5 0.0
-0.5 0.5 0.0
0.5 0.5 0.0
0.5 -1.5 1.0
-0.5 -1.5 1.0
0.5 -1.5 -1.0
-0.5 -1.5 -1.0
-0.5 -1.5 0.0
0.5 -1.5 0.0
8.326672684688674e-17 -1.207106781 0.49999999999999994
0.0 -1.2071067809999998 -0.5
0.5 -2.5 -1.0
-0.5 -2.5 -1.0
-0.5 -2.5 1.0
-0.5 -2.5 0.0
0.5 -2.5 1.0
0.5 -2.5 0.0
-0.5 -0.5 0.5
-0.5 0.0 0.0
-0.5 0.5 0.5
-0.5 0.0 1.0
0.0 -0.5 1.0
0.0 -0.5 0.0
0.0 0.5 0.0
0.0 0.5 1.0
0.5 -0.5 0.5
0.5 0.0 0.0
0.5 0.5 0.5
0.5 0.0 1.0
-0.5 -0.5 -0.5
-0.5 0.0 -1.0
-0.5 0.5 -0.5
0.0 -0.5 -1.0
0.0 0.5 -1.0
0.5 -0.5 -0.5
0.5 0.0 -1.0
0.5 0.5 -0.5
0.25000000000000006 -0.8535533905 0.24999999999999997
0.25000000000000006 -0.8535533905 0.75
-0.24999999999999994 -0.8535533905 0.75
-0.24999999999999994 -0.8535533905 0.24999999999999997
0.25 -0.8535533904999999 -0.75
0.25 -0.8535533904999999 -0.25
-0.25 -0.8535533904999999 -0.25
-0.25 -0.8535533904999999 -0.75
0.0 -1.0 1.0
0.25000000000000006 -1.3535533905000001 0.75
0.5 -1.0 1.0
0.25 -1.3535533905 -0.75
0.0 -1.0 -1.0
0.5 -1.0 -1.0
-0.24999999999999994 -1.3535533905000001 0.75
-0.5 -1.0 1.0
0.0 -1.5 1.0
0.25000000000000006 -1.3535533905000001 0.24999999999999997
0.0 -1.5 0.5
-0.5 -1.5 0.5
-0.24999999999999994 -1.3535533905000001 0.24999999999999997
0.0 -1.5 0.0
-0.5 -1.0 0.5
-0.5 -1.0 0.0
0.25 -1.3535533905 -0.25
-0.25 -1.3535533905 -0.25
0.5 -1.5 -0.5
0.0 -1.5 -0.5
-0.25 -1.3535533905 -0.75
-0.5 -1.0 -1.0
-0.5 -1.0 -0.5
0.5 -1.0 0.5
4.163336342344337e-17 -1.2071067809999998 -2.7755575615628914e-17
0.5 -1.0 0.0
0.5 -1.0 -0.5
0.0 -1.5 -1.0
-0.5 -1.5 -0.5
0.5 -1.5 0.5
0.0 -2.5 -0.5
0.0 -2.5 0.0
0.5 -2.5 -0.5
0.5 -2.0 -1.0
-0.5 -2.0 0.0
0.5 -2.0 0.0
0.0 -2.5 0.5
0.0 -2.5 1.0
0.5 -2.5 0.5
-0.5 -2.0 1.0
0.5 -2.0 1.0
-0.5 -2.5 -0.5
0.0 -2.5 -1.0
-0.5 -2.0 -1.0
-0.5 -2.5 0.5
CELLS 67 303
4 18 3 12 0
4 19 14 6 5
4 13 18 3 12
4 13 18 17 16
4 18 16 3 8
4 19 17 16 14
4 15 19 6 8
4 9 18 12 0
4 19 18 8 16
4 13 18 16 3
4 9 19 5 17
4 19 17 14 5
4 15 19 14 6
4 15 19 16 14
4 19 18 16 17
4 9 19 18 8
4 9 19 17 18
4 13 18 12 17
4 15 19 8 16
4 9 18 17 12
8 3 8 10 2 0 9 11 1
8 8 6 7 10 9 5 4 11
6 20 23 25 14 16 17 
6 25 22 24 17 13 12 
6 21 23 20 15 16 14 
6 23 22 25 16 13 17 
5 9 0 3 8 18 
5 5 9 8 6 19 
3 12 0 3 
3 13 12 3 
3 6 5 14 
3 6 14 15 
3 3 8 16 
3 8 6 15 
3 3 16 13 
3 8 15 16 
3 9 0 12 
3 5 9 17 
3 9 12 17 
3 5 17 14 
4 0 1 2 3 
4 4 5 6 7 
4 2 10 8 3 
4 10 7 6 8 
4 1 11 10 2 
4 11 4 7 10 
4 0 9 11 1 
4 9 5 4 11 
2 0 1 
2 1 2 
2 2 3 
2 3 0 
2 4 5 
2 5 6 
2 6 7 
2 7 4 
2 3 8 
2 8 6 
2 0 9 
2 9 5 
2 2 10 
2 10 7 
2 10 8 
2 1 11 
2 11 4 
2 11 10 
2 9 11 
CELL_TYPES 67
10
10
10
10
10
10
10
10
10
10
10
10
10
10
10
10
10
10
10
10
12
12
13
13
13
13
14
14
5
5
5
5
5
5
5
5
5
5
5
5
9
9
9
9
9
9
9
9
3
3
3
3
3
3
3
3
3
3
3
3
3
3
3
3
3
3
3
CELL_DATA 67
SCALARS scalars float
LOOKUP_TABLE default
4
4
4
4
4
4
4
4
4
4
4
4
4
4
4
4
4
4
4
4
8
8
6
6
6
6
5
5
3
3
3
3
3
3
3
3
3
3
3
3
4
4
4
4
4
4
4
4
2
2
2
2
2
2
2
2
2
2
2
2
2
2
2
2
2
2
2
