# vtk DataFile Version 3.0
Unstructured Grid examples/hex20_pyramid13_tetra10_wedge15.vtk
ASCII
DATASET UNSTRUCTURED_GRID
POINTS 99 float
0.5 -0.5 1.0
0.5 0.5 1.0
-0.5 0.5 1.0
-0.5 -0.5 1.0
0.5 0.5 -1.0
0.5 -0.5 -1.0
-0.5 -0.5 -1.0
-0.5 0.5 -1.0
-0.5 -0.5 0.0
0.5 -0.5 0.0
-0.5 0.5 0.0
0.5 0.5 0.0
0.5 -1.5 1.0
-0.5 -1.5 1.0
0.5 -1.5 -1.0
-0.5 -1.5 -1.0
-0.5 -1.5 0.0
0.5 -1.5 0.0
8.326672684688674e-17 -1.207106781 0.49999999999999994
0.0 -1.2071067809999998 -0.5
0.5 -2.5 -1.0
-0.5 -2.5 -1.0
-0.5 -2.5 1.0
-0.5 -2.5 0.0
0.5 -2.5 1.0
0.5 -2.5 0.0
-0.5 -0.5 0.5
-0.5 0.0 0.0
-0.5 0.5 0.5
-0.5 0.0 1.0
0.0 -0.5 1.0
0.0 -0.5 0.0
0.0 0.5 0.0
0.0 0.5 1.0
0.5 -0.5 0.5
0.5 0.0 0.0
0.5 0.5 0.5
0.5 0.0 1.0
-0.5 -0.5 -0.5
-0.5 0.0 -1.0
-0.5 0.5 -0.5
0.0 -0.5 -1.0
0.0 0.5 -1.0
0.5 -0.5 -0.5
0.5 0.0 -1.0
0.5 0.5 -0.5
0.25000000000000006 -0.8535533905 0.24999999999999997
0.25000000000000006 -0.8535533905 0.75
-0.24999999999999994 -0.8535533905 0.75
-0.24999999999999994 -0.8535533905 0.24999999999999997
0.25 -0.8535533904999999 -0.75
0.25 -0.8535533904999999 -0.25
-0.25 -0.8535533904999999 -0.25
-0.25 -0.8535533904999999 -0.75
0.0 -1.0 1.0
0.25000000000000006 -1.3535533905000001 0.75
0.5 -1.0 1.0
0.25 -1.3535533905 -0.75
0.0 -1.0 -1.0
0.5 -1.0 -1.0
-0.24999999999999994 -1.3535533905000001 0.75
-0.5 -1.0 1.0
0.0 -1.5 1.0
0.25000000000000006 -1.3535533905000001 0.24999999999999997
0.0 -1.5 0.5
-0.5 -1.5 0.5
-0.24999999999999994 -1.3535533905000001 0.24999999999999997
0.0 -1.5 0.0
-0.5 -1.0 0.5
-0.5 -1.0 0.0
0.25 -1.3535533905 -0.25
-0.25 -1.3535533905 -0.25
0.5 -1.5 -0.5
0.0 -1.5 -0.5
-0.25 -1.3535533905 -0.75
-0.5 -1.0 -1.0
-0.5 -1.0 -0.5
0.5 -1.0 0.5
4.163336342344337e-17 -1.2071067809999998 -2.7755575615628914e-17
0.5 -1.0 0.0
0.5 -1.0 -0.5
0.0 -1.5 -1.0
-0.5 -1.5 -0.5
0.5 -1.5 0.5
0.0 -2.5 -0.5
0.0 -2.5 0.0
0.5 -2.5 -0.5
0.5 -2.0 -1.0
-0.5 -2.0 0.0
0.5 -2.0 0.0
0.0 -2.5 0.5
0.0 -2.5 1.0
0.5 -2.5 0.5
-0.5 -2.0 1.0
0.5 -2.0 1.0
-0.5 -2.5 -0.5
0.0 -2.5 -1.0
-0.5 -2.0 -1.0
-0.5 -2.5 0.5
CELLS 98 648
10 18 3 12 0 48 54 55 47 30 56
10 19 14 6 5 57 58 53 50 59 41
10 13 18 3 12 60 48 61 62 55 54
10 13 18 17 16 60 63 64 65 66 67
10 18 16 3 8 66 68 48 49 69 26
10 19 17 16 14 70 67 71 57 72 73
10 15 19 6 8 74 53 75 76 52 38
10 9 18 12 0 46 55 77 34 47 56
10 19 18 8 16 78 49 52 71 66 69
10 13 18 16 3 60 66 65 61 48 68
10 9 19 5 17 51 50 43 79 70 80
10 19 17 14 5 70 72 57 50 80 59
10 15 19 14 6 74 57 81 75 53 58
10 15 19 16 14 74 71 82 81 57 73
10 19 18 16 17 78 66 71 70 63 67
10 9 19 18 8 51 78 46 31 52 49
10 9 19 17 18 51 70 79 46 78 63
10 13 18 12 17 60 55 62 64 63 83
10 15 19 8 16 74 52 76 82 71 69
10 9 18 17 12 46 63 79 77 55 83
20 3 8 10 2 0 9 11 1 26 27 28 29 34 35 36 37 30 31 32 33
20 8 6 7 10 9 5 4 11 38 39 40 27 43 44 45 35 31 41 42 32
15 20 23 25 14 16 17 84 85 86 73 67 72 87 88 89 
15 25 22 24 17 13 12 90 91 92 64 62 83 89 93 94 
15 21 23 20 15 16 14 95 84 96 82 73 81 97 88 87 
15 23 22 25 16 13 17 98 90 85 65 64 67 88 93 89 
13 9 0 3 8 18 34 30 26 31 46 47 48 49 
13 5 9 8 6 19 43 31 38 41 50 51 52 53 
6 12 0 3 56 30 54 
6 13 12 3 62 54 61 
6 6 5 14 41 59 58 
6 6 14 15 58 81 75 
6 3 8 16 26 69 68 
6 8 6 15 38 75 76 
6 3 16 13 68 65 61 
6 8 15 16 76 82 69 
6 9 0 12 34 56 77 
6 5 9 17 43 79 80 
6 9 12 17 77 83 79 
6 5 17 14 80 72 59 
8 0 1 2 3 37 33 29 30
8 4 5 6 7 44 41 39 42
8 2 10 8 3 28 27 26 29
8 10 7 6 8 40 39 38 27
8 1 11 10 2 36 32 28 33
8 11 4 7 10 45 42 40 32
8 0 9 11 1 34 35 36 37
8 9 5 4 11 43 44 45 35
3 0 1 37 
3 1 2 33 
3 2 3 29 
3 3 0 30 
3 4 5 44 
3 5 6 41 
3 6 7 39 
3 7 4 42 
3 3 8 26 
3 8 6 38 
3 0 9 34 
3 9 5 43 
3 2 10 28 
3 10 7 40 
3 10 8 27 
3 1 11 36 
3 11 4 45 
3 11 10 32 
3 9 11 35 
1 0 
1 1 
1 2 
1 3 
1 4 
1 5 
1 6 
1 7 
1 8 
1 9 
1 10 
1 11 
1 26 
1 27 
1 28 
1 29 
1 30 
1 32 
1 33 
1 34 
1 35 
1 36 
1 37 
1 38 
1 39 
1 40 
1 41 
1 42 
1 43 
1 44 
1 45 
CELL_TYPES 98
24
24
24
24
24
24
24
24
24
24
24
24
24
24
24
24
24
24
24
24
25
25
26
26
26
26
27
27
22
22
22
22
22
22
22
22
22
22
22
22
23
23
23
23
23
23
23
23
21
21
21
21
21
21
21
21
21
21
21
21
21
21
21
21
21
21
21
1
1
1
1
1
1
1
1
1
1
1
1
1
1
1
1
1
1
1
1
1
1
1
1
1
1
1
1
1
1
1
CELL_DATA 98
SCALARS scalars float
LOOKUP_TABLE default
1
1
1
1
1
1
1
1
1
1
1
1
1
1
1
1
1
1
1
1
2
2
3
3
3
3
4
4
5
5
5
5
5
5
5
5
5
5
5
5
6
6
6
6
6
6
6
6
0
0
0
0
0
0
0
0
0
0
0
0
0
0
0
0
0
0
0
-1
-1
-1
-1
-1
-1
-1
-1
-1
-1
-1
-1
-1
-1
-1
-1
-1
-1
-1
-1
-1
-1
-1
-1
-1
-1
-1
-1
-1
-1
-1
