# vtk DataFile Version 3.0
Unstructured Grid examples/quad8_tri6_bar3.vtk
ASCII
DATASET UNSTRUCTURED_GRID
POINTS 23 float
1.0 0.5 0.0
-1.0 0.5 0.0
0.0 0.5 0.0
-1.0 -0.5 0.0
1.0 -0.5 0.0
0.0 -0.5 0.0
-1.0 -1.5 0.0
1.0 -1.5 0.0
0.0 -1.5 0.0
0.5 0.5 0.0
0.0 0.0 0.0
0.5 -0.5 0.0
1.0 0.0 0.0
-0.5 0.5 0.0
-1.0 0.0 0.0
-0.5 -0.5 0.0
-0.5 -1.5 0.0
0.0 -1.0 0.0
-0.5 -1.0 0.0
0.5 -1.5 0.0
1.0 -1.0 0.0
0.5 -1.0 0.0
-1.0 -1.0 0.0
CELLS 30 82
3 6 8 5 
3 8 7 4 
3 6 5 3 
3 8 4 5 
4 0 2 5 4 
4 2 1 3 5 
2 0 2 
2 2 1 
2 1 3 
2 4 0 
2 3 6 
2 6 8 
2 8 7 
2 7 4 
1 0 
1 1 
1 2 
1 3 
1 4 
1 6 
1 7 
1 8 
1 9 
1 12 
1 13 
1 14 
1 16 
1 19 
1 20 
1 22 
CELL_TYPES 30
5
5
5
5
9
9
3
3
3
3
3
3
3
3
1
1
1
1
1
1
1
1
1
1
1
1
1
1
1
1
CELL_DATA 30
SCALARS scalars float
LOOKUP_TABLE default
3
3
3
3
4
4
2
2
2
2
2
2
2
2
1
1
1
1
1
1
1
1
1
1
1
1
1
1
1
1
